% Model:              2cycle 聚焦 1MHz 0.mph
% Version:            COMSOL 5.5.0.359
% Date:               Sep 22 2022, 20:26
% Dimension:          1
% Nodes:              1601
% Elements:           1600
% Expressions:        1
% Description:        Point graph
% Coordinates
0
5.0E-8
1.0E-7
1.5E-7
2.0E-7
2.5E-7
3.0E-7
3.5E-7
4.0E-7
4.5E-7
5.0E-7
5.5E-7
6.0E-7
6.499999999999999E-7
7.0E-7
7.5E-7
8.0E-7
8.499999999999999E-7
9.0E-7
9.5E-7
1.0E-6
1.05E-6
1.1E-6
1.15E-6
1.2E-6
1.2499999999999999E-6
1.2999999999999998E-6
1.35E-6
1.4E-6
1.4499999999999999E-6
1.5E-6
1.55E-6
1.6E-6
1.6499999999999999E-6
1.6999999999999998E-6
1.75E-6
1.8E-6
1.8499999999999999E-6
1.9E-6
1.95E-6
2.0E-6
2.05E-6
2.1E-6
2.1499999999999997E-6
2.2E-6
2.25E-6
2.3E-6
2.35E-6
2.4E-6
2.45E-6
2.4999999999999998E-6
2.5499999999999997E-6
2.5999999999999997E-6
2.65E-6
2.7E-6
2.75E-6
2.8E-6
2.85E-6
2.8999999999999998E-6
2.9499999999999997E-6
3.0E-6
3.05E-6
3.1E-6
3.15E-6
3.2E-6
3.25E-6
3.2999999999999997E-6
3.3499999999999997E-6
3.3999999999999996E-6
3.45E-6
3.5E-6
3.55E-6
3.6E-6
3.6499999999999998E-6
3.6999999999999997E-6
3.7499999999999997E-6
3.8E-6
3.8499999999999996E-6
3.9E-6
3.9499999999999995E-6
4.0E-6
4.05E-6
4.1E-6
4.15E-6
4.2E-6
4.25E-6
4.2999999999999995E-6
4.35E-6
4.4E-6
4.45E-6
4.5E-6
4.55E-6
4.6E-6
4.6499999999999995E-6
4.7E-6
4.749999999999999E-6
4.8E-6
4.85E-6
4.9E-6
4.95E-6
4.9999999999999996E-6
5.05E-6
5.0999999999999995E-6
5.15E-6
5.199999999999999E-6
5.25E-6
5.3E-6
5.35E-6
5.4E-6
5.4499999999999995E-6
5.5E-6
5.549999999999999E-6
5.6E-6
5.65E-6
5.7E-6
5.75E-6
5.7999999999999995E-6
5.85E-6
5.899999999999999E-6
5.95E-6
6.0E-6
6.05E-6
6.1E-6
6.1499999999999996E-6
6.2E-6
6.2499999999999995E-6
6.3E-6
6.349999999999999E-6
6.4E-6
6.45E-6
6.5E-6
6.55E-6
6.5999999999999995E-6
6.65E-6
6.699999999999999E-6
6.75E-6
6.799999999999999E-6
6.85E-6
6.9E-6
6.9499999999999995E-6
7.0E-6
7.049999999999999E-6
7.1E-6
7.149999999999999E-6
7.2E-6
7.25E-6
7.2999999999999996E-6
7.35E-6
7.3999999999999995E-6
7.45E-6
7.499999999999999E-6
7.55E-6
7.6E-6
7.65E-6
7.699999999999999E-6
7.75E-6
7.8E-6
7.85E-6
7.899999999999999E-6
7.95E-6
8.0E-6
8.05E-6
8.1E-6
8.15E-6
8.2E-6
8.249999999999999E-6
8.3E-6
8.35E-6
8.4E-6
8.45E-6
8.5E-6
8.55E-6
8.599999999999999E-6
8.65E-6
8.7E-6
8.75E-6
8.8E-6
8.85E-6
8.9E-6
8.949999999999999E-6
9.0E-6
9.05E-6
9.1E-6
9.149999999999999E-6
9.2E-6
9.25E-6
9.299999999999999E-6
9.35E-6
9.4E-6
9.45E-6
9.499999999999999E-6
9.55E-6
9.6E-6
9.649999999999999E-6
9.7E-6
9.75E-6
9.8E-6
9.849999999999999E-6
9.9E-6
9.95E-6
9.999999999999999E-6
1.005E-5
1.01E-5
1.015E-5
1.0199999999999999E-5
1.025E-5
1.03E-5
1.035E-5
1.0399999999999999E-5
1.045E-5
1.05E-5
1.0549999999999999E-5
1.06E-5
1.065E-5
1.07E-5
1.0749999999999999E-5
1.08E-5
1.085E-5
1.0899999999999999E-5
1.095E-5
1.1E-5
1.105E-5
1.1099999999999999E-5
1.115E-5
1.12E-5
1.1249999999999999E-5
1.13E-5
1.135E-5
1.14E-5
1.1449999999999999E-5
1.15E-5
1.155E-5
1.1599999999999999E-5
1.165E-5
1.17E-5
1.175E-5
1.1799999999999999E-5
1.185E-5
1.19E-5
1.1949999999999999E-5
1.2E-5
1.205E-5
1.21E-5
1.2149999999999999E-5
1.22E-5
1.225E-5
1.2299999999999999E-5
1.2349999999999999E-5
1.24E-5
1.245E-5
1.2499999999999999E-5
1.255E-5
1.26E-5
1.265E-5
1.2699999999999999E-5
1.275E-5
1.28E-5
1.2849999999999999E-5
1.29E-5
1.295E-5
1.3E-5
1.3049999999999999E-5
1.31E-5
1.315E-5
1.3199999999999999E-5
1.325E-5
1.33E-5
1.335E-5
1.3399999999999999E-5
1.345E-5
1.35E-5
1.3549999999999999E-5
1.3599999999999999E-5
1.365E-5
1.37E-5
1.3749999999999999E-5
1.38E-5
1.385E-5
1.3899999999999999E-5
1.3949999999999999E-5
1.4E-5
1.405E-5
1.4099999999999999E-5
1.415E-5
1.42E-5
1.4249999999999999E-5
1.4299999999999999E-5
1.435E-5
1.44E-5
1.4449999999999999E-5
1.45E-5
1.455E-5
1.4599999999999999E-5
1.4649999999999999E-5
1.47E-5
1.475E-5
1.4799999999999999E-5
1.485E-5
1.49E-5
1.495E-5
1.4999999999999999E-5
1.505E-5
1.51E-5
1.5149999999999999E-5
1.52E-5
1.525E-5
1.53E-5
1.535E-5
1.5399999999999998E-5
1.545E-5
1.55E-5
1.555E-5
1.56E-5
1.565E-5
1.57E-5
1.575E-5
1.5799999999999998E-5
1.585E-5
1.59E-5
1.5949999999999998E-5
1.6E-5
1.605E-5
1.61E-5
1.615E-5
1.62E-5
1.625E-5
1.63E-5
1.6349999999999998E-5
1.64E-5
1.645E-5
1.6499999999999998E-5
1.655E-5
1.66E-5
1.6649999999999998E-5
1.67E-5
1.675E-5
1.68E-5
1.685E-5
1.69E-5
1.695E-5
1.7E-5
1.7049999999999998E-5
1.71E-5
1.715E-5
1.7199999999999998E-5
1.725E-5
1.73E-5
1.7349999999999998E-5
1.74E-5
1.745E-5
1.75E-5
1.755E-5
1.76E-5
1.765E-5
1.77E-5
1.7749999999999998E-5
1.78E-5
1.785E-5
1.7899999999999998E-5
1.795E-5
1.8E-5
1.8049999999999998E-5
1.81E-5
1.815E-5
1.82E-5
1.825E-5
1.8299999999999998E-5
1.835E-5
1.84E-5
1.8449999999999998E-5
1.85E-5
1.855E-5
1.8599999999999998E-5
1.865E-5
1.87E-5
1.875E-5
1.88E-5
1.885E-5
1.89E-5
1.895E-5
1.8999999999999998E-5
1.905E-5
1.91E-5
1.9149999999999998E-5
1.92E-5
1.925E-5
1.9299999999999998E-5
1.935E-5
1.94E-5
1.945E-5
1.95E-5
1.9549999999999997E-5
1.96E-5
1.965E-5
1.9699999999999998E-5
1.975E-5
1.98E-5
1.9849999999999998E-5
1.99E-5
1.995E-5
1.9999999999999998E-5
2.005E-5
2.01E-5
2.015E-5
2.02E-5
2.0249999999999998E-5
2.03E-5
2.035E-5
2.0399999999999998E-5
2.045E-5
2.05E-5
2.0549999999999998E-5
2.06E-5
2.065E-5
2.07E-5
2.075E-5
2.0799999999999997E-5
2.085E-5
2.09E-5
2.0949999999999998E-5
2.1E-5
2.105E-5
2.1099999999999998E-5
2.115E-5
2.12E-5
2.1249999999999998E-5
2.13E-5
2.135E-5
2.14E-5
2.145E-5
2.1499999999999997E-5
2.155E-5
2.16E-5
2.1649999999999998E-5
2.17E-5
2.175E-5
2.1799999999999998E-5
2.185E-5
2.19E-5
2.1949999999999998E-5
2.2E-5
2.205E-5
2.21E-5
2.215E-5
2.2199999999999998E-5
2.225E-5
2.23E-5
2.2349999999999998E-5
2.24E-5
2.245E-5
2.2499999999999998E-5
2.255E-5
2.26E-5
2.2649999999999998E-5
2.27E-5
2.2749999999999997E-5
2.28E-5
2.285E-5
2.2899999999999998E-5
2.295E-5
2.3E-5
2.3049999999999998E-5
2.31E-5
2.315E-5
2.3199999999999998E-5
2.325E-5
2.33E-5
2.335E-5
2.34E-5
2.3449999999999997E-5
2.35E-5
2.355E-5
2.3599999999999998E-5
2.365E-5
2.37E-5
2.3749999999999998E-5
2.38E-5
2.385E-5
2.3899999999999998E-5
2.395E-5
2.4E-5
2.405E-5
2.41E-5
2.4149999999999997E-5
2.42E-5
2.425E-5
2.4299999999999998E-5
2.435E-5
2.44E-5
2.4449999999999998E-5
2.45E-5
2.455E-5
2.4599999999999998E-5
2.465E-5
2.4699999999999997E-5
2.475E-5
2.48E-5
2.4849999999999998E-5
2.49E-5
2.495E-5
2.4999999999999998E-5
2.505E-5
2.51E-5
2.5149999999999998E-5
2.52E-5
2.525E-5
2.53E-5
2.535E-5
2.5399999999999997E-5
2.545E-5
2.55E-5
2.5549999999999998E-5
2.56E-5
2.565E-5
2.5699999999999998E-5
2.575E-5
2.58E-5
2.5849999999999998E-5
2.59E-5
2.5949999999999997E-5
2.6E-5
2.605E-5
2.6099999999999997E-5
2.615E-5
2.62E-5
2.6249999999999998E-5
2.63E-5
2.635E-5
2.6399999999999998E-5
2.645E-5
2.65E-5
2.6549999999999998E-5
2.66E-5
2.6649999999999997E-5
2.67E-5
2.675E-5
2.6799999999999998E-5
2.685E-5
2.69E-5
2.6949999999999998E-5
2.7E-5
2.705E-5
2.7099999999999998E-5
2.715E-5
2.7199999999999997E-5
2.7249999999999998E-5
2.73E-5
2.7349999999999997E-5
2.74E-5
2.745E-5
2.7499999999999998E-5
2.755E-5
2.76E-5
2.7649999999999998E-5
2.77E-5
2.775E-5
2.7799999999999998E-5
2.785E-5
2.7899999999999997E-5
2.795E-5
2.8E-5
2.8049999999999997E-5
2.81E-5
2.815E-5
2.8199999999999998E-5
2.825E-5
2.83E-5
2.8349999999999998E-5
2.84E-5
2.845E-5
2.8499999999999998E-5
2.855E-5
2.8599999999999997E-5
2.865E-5
2.87E-5
2.8749999999999997E-5
2.88E-5
2.885E-5
2.8899999999999998E-5
2.895E-5
2.9E-5
2.9049999999999998E-5
2.91E-5
2.9149999999999997E-5
2.9199999999999998E-5
2.925E-5
2.9299999999999997E-5
2.935E-5
2.94E-5
2.9449999999999998E-5
2.95E-5
2.955E-5
2.9599999999999998E-5
2.965E-5
2.97E-5
2.9749999999999998E-5
2.98E-5
2.9849999999999997E-5
2.99E-5
2.995E-5
2.9999999999999997E-5
3.005E-5
3.01E-5
3.0149999999999998E-5
3.02E-5
3.025E-5
3.0299999999999998E-5
3.035E-5
3.04E-5
3.0449999999999998E-5
3.05E-5
3.055E-5
3.06E-5
3.065E-5
3.07E-5
3.0749999999999995E-5
3.0799999999999996E-5
3.085E-5
3.09E-5
3.095E-5
3.1E-5
3.1049999999999996E-5
3.11E-5
3.115E-5
3.12E-5
3.125E-5
3.13E-5
3.1349999999999996E-5
3.14E-5
3.145E-5
3.15E-5
3.155E-5
3.1599999999999996E-5
3.165E-5
3.17E-5
3.175E-5
3.18E-5
3.185E-5
3.1899999999999996E-5
3.195E-5
3.2E-5
3.205E-5
3.21E-5
3.2149999999999995E-5
3.22E-5
3.225E-5
3.23E-5
3.235E-5
3.24E-5
3.2449999999999996E-5
3.25E-5
3.255E-5
3.26E-5
3.265E-5
3.2699999999999995E-5
3.2749999999999996E-5
3.28E-5
3.285E-5
3.29E-5
3.295E-5
3.2999999999999996E-5
3.305E-5
3.31E-5
3.315E-5
3.32E-5
3.325E-5
3.3299999999999996E-5
3.335E-5
3.34E-5
3.345E-5
3.35E-5
3.3549999999999996E-5
3.36E-5
3.365E-5
3.37E-5
3.375E-5
3.38E-5
3.3849999999999996E-5
3.39E-5
3.395E-5
3.4E-5
3.405E-5
3.4099999999999995E-5
3.4149999999999997E-5
3.42E-5
3.425E-5
3.43E-5
3.435E-5
3.4399999999999996E-5
3.445E-5
3.45E-5
3.455E-5
3.46E-5
3.4649999999999995E-5
3.4699999999999996E-5
3.475E-5
3.48E-5
3.485E-5
3.49E-5
3.4949999999999996E-5
3.5E-5
3.505E-5
3.51E-5
3.515E-5
3.52E-5
3.5249999999999996E-5
3.53E-5
3.535E-5
3.54E-5
3.545E-5
3.5499999999999996E-5
3.555E-5
3.56E-5
3.565E-5
3.57E-5
3.575E-5
3.5799999999999996E-5
3.585E-5
3.59E-5
3.595E-5
3.6E-5
3.6049999999999995E-5
3.6099999999999997E-5
3.615E-5
3.62E-5
3.625E-5
3.63E-5
3.6349999999999996E-5
3.64E-5
3.645E-5
3.65E-5
3.655E-5
3.6599999999999995E-5
3.6649999999999996E-5
3.67E-5
3.675E-5
3.68E-5
3.685E-5
3.6899999999999996E-5
3.695E-5
3.7E-5
3.705E-5
3.71E-5
3.7149999999999995E-5
3.7199999999999996E-5
3.725E-5
3.73E-5
3.735E-5
3.74E-5
3.7449999999999995E-5
3.75E-5
3.755E-5
3.76E-5
3.765E-5
3.77E-5
3.7749999999999996E-5
3.78E-5
3.785E-5
3.79E-5
3.795E-5
3.7999999999999995E-5
3.8049999999999997E-5
3.81E-5
3.815E-5
3.82E-5
3.825E-5
3.8299999999999996E-5
3.835E-5
3.84E-5
3.845E-5
3.85E-5
3.8549999999999995E-5
3.8599999999999996E-5
3.865E-5
3.87E-5
3.875E-5
3.88E-5
3.8849999999999996E-5
3.89E-5
3.895E-5
3.9E-5
3.905E-5
3.9099999999999995E-5
3.9149999999999996E-5
3.92E-5
3.925E-5
3.93E-5
3.935E-5
3.9399999999999995E-5
3.945E-5
3.95E-5
3.955E-5
3.96E-5
3.965E-5
3.9699999999999996E-5
3.975E-5
3.98E-5
3.985E-5
3.99E-5
3.9949999999999995E-5
3.9999999999999996E-5
4.005E-5
4.01E-5
4.015E-5
4.02E-5
4.0249999999999996E-5
4.03E-5
4.035E-5
4.04E-5
4.045E-5
4.0499999999999995E-5
4.0549999999999996E-5
4.06E-5
4.065E-5
4.07E-5
4.075E-5
4.0799999999999996E-5
4.085E-5
4.09E-5
4.095E-5
4.1E-5
4.1049999999999995E-5
4.1099999999999996E-5
4.115E-5
4.12E-5
4.125E-5
4.13E-5
4.1349999999999995E-5
4.14E-5
4.145E-5
4.15E-5
4.155E-5
4.1599999999999995E-5
4.1649999999999996E-5
4.17E-5
4.175E-5
4.18E-5
4.185E-5
4.1899999999999995E-5
4.1949999999999996E-5
4.2E-5
4.205E-5
4.21E-5
4.215E-5
4.2199999999999996E-5
4.225E-5
4.23E-5
4.235E-5
4.24E-5
4.2449999999999995E-5
4.2499999999999996E-5
4.255E-5
4.26E-5
4.265E-5
4.27E-5
4.2749999999999996E-5
4.28E-5
4.285E-5
4.29E-5
4.295E-5
4.2999999999999995E-5
4.3049999999999996E-5
4.31E-5
4.315E-5
4.32E-5
4.325E-5
4.3299999999999995E-5
4.3349999999999997E-5
4.34E-5
4.345E-5
4.35E-5
4.3549999999999995E-5
4.3599999999999996E-5
4.365E-5
4.37E-5
4.375E-5
4.38E-5
4.3849999999999995E-5
4.3899999999999996E-5
4.395E-5
4.4E-5
4.405E-5
4.41E-5
4.4149999999999996E-5
4.42E-5
4.425E-5
4.43E-5
4.435E-5
4.4399999999999995E-5
4.4449999999999996E-5
4.45E-5
4.455E-5
4.46E-5
4.465E-5
4.4699999999999996E-5
4.475E-5
4.48E-5
4.485E-5
4.49E-5
4.4949999999999995E-5
4.4999999999999996E-5
4.505E-5
4.51E-5
4.515E-5
4.52E-5
4.5249999999999995E-5
4.5299999999999997E-5
4.535E-5
4.54E-5
4.545E-5
4.5499999999999995E-5
4.5549999999999996E-5
4.56E-5
4.565E-5
4.57E-5
4.575E-5
4.5799999999999995E-5
4.5849999999999996E-5
4.59E-5
4.595E-5
4.6E-5
4.605E-5
4.6099999999999996E-5
4.615E-5
4.62E-5
4.625E-5
4.63E-5
4.6349999999999995E-5
4.6399999999999996E-5
4.645E-5
4.65E-5
4.655E-5
4.66E-5
4.6649999999999996E-5
4.67E-5
4.675E-5
4.68E-5
4.685E-5
4.6899999999999995E-5
4.6949999999999996E-5
4.7E-5
4.705E-5
4.71E-5
4.715E-5
4.7199999999999995E-5
4.7249999999999997E-5
4.73E-5
4.735E-5
4.74E-5
4.7449999999999995E-5
4.7499999999999996E-5
4.755E-5
4.76E-5
4.765E-5
4.77E-5
4.7749999999999995E-5
4.7799999999999996E-5
4.785E-5
4.79E-5
4.795E-5
4.8E-5
4.8049999999999996E-5
4.81E-5
4.815E-5
4.82E-5
4.825E-5
4.8299999999999995E-5
4.8349999999999996E-5
4.84E-5
4.845E-5
4.85E-5
4.855E-5
4.8599999999999995E-5
4.865E-5
4.87E-5
4.875E-5
4.88E-5
4.8849999999999995E-5
4.8899999999999996E-5
4.895E-5
4.9E-5
4.905E-5
4.91E-5
4.9149999999999995E-5
4.9199999999999997E-5
4.925E-5
4.93E-5
4.935E-5
4.9399999999999995E-5
4.9449999999999996E-5
4.95E-5
4.955E-5
4.96E-5
4.965E-5
4.9699999999999995E-5
4.9749999999999996E-5
4.98E-5
4.985E-5
4.99E-5
4.9949999999999994E-5
4.9999999999999996E-5
5.005E-5
5.01E-5
5.015E-5
5.02E-5
5.0249999999999995E-5
5.0299999999999996E-5
5.035E-5
5.04E-5
5.045E-5
5.05E-5
5.0549999999999995E-5
5.06E-5
5.065E-5
5.07E-5
5.075E-5
5.0799999999999995E-5
5.0849999999999996E-5
5.09E-5
5.095E-5
5.1E-5
5.105E-5
5.1099999999999995E-5
5.1149999999999996E-5
5.12E-5
5.125E-5
5.13E-5
5.1349999999999995E-5
5.1399999999999996E-5
5.145E-5
5.15E-5
5.155E-5
5.16E-5
5.1649999999999995E-5
5.1699999999999996E-5
5.175E-5
5.18E-5
5.185E-5
5.1899999999999994E-5
5.1949999999999996E-5
5.2E-5
5.205E-5
5.21E-5
5.215E-5
5.2199999999999995E-5
5.2249999999999996E-5
5.23E-5
5.235E-5
5.24E-5
5.245E-5
5.2499999999999995E-5
5.255E-5
5.26E-5
5.265E-5
5.27E-5
5.2749999999999995E-5
5.2799999999999996E-5
5.285E-5
5.29E-5
5.295E-5
5.3E-5
5.3049999999999995E-5
5.3099999999999996E-5
5.315E-5
5.32E-5
5.325E-5
5.3299999999999995E-5
5.3349999999999996E-5
5.34E-5
5.345E-5
5.35E-5
5.355E-5
5.3599999999999995E-5
5.3649999999999996E-5
5.37E-5
5.375E-5
5.38E-5
5.3849999999999994E-5
5.3899999999999996E-5
5.395E-5
5.4E-5
5.405E-5
5.41E-5
5.4149999999999995E-5
5.4199999999999996E-5
5.425E-5
5.43E-5
5.435E-5
5.4399999999999994E-5
5.4449999999999995E-5
5.4499999999999997E-5
5.455E-5
5.46E-5
5.465E-5
5.4699999999999995E-5
5.4749999999999996E-5
5.48E-5
5.485E-5
5.49E-5
5.495E-5
5.4999999999999995E-5
5.5049999999999996E-5
5.51E-5
5.515E-5
5.52E-5
5.5249999999999994E-5
5.5299999999999996E-5
5.535E-5
5.54E-5
5.545E-5
5.55E-5
5.5549999999999995E-5
5.5599999999999996E-5
5.565E-5
5.57E-5
5.575E-5
5.5799999999999994E-5
5.5849999999999996E-5
5.59E-5
5.595E-5
5.6E-5
5.605E-5
5.6099999999999995E-5
5.6149999999999996E-5
5.62E-5
5.625E-5
5.63E-5
5.6349999999999994E-5
5.6399999999999995E-5
5.6449999999999997E-5
5.65E-5
5.655E-5
5.66E-5
5.6649999999999995E-5
5.6699999999999996E-5
5.675E-5
5.68E-5
5.685E-5
5.69E-5
5.6949999999999995E-5
5.6999999999999996E-5
5.705E-5
5.71E-5
5.715E-5
5.7199999999999994E-5
5.7249999999999996E-5
5.73E-5
5.735E-5
5.74E-5
5.745E-5
5.7499999999999995E-5
5.7549999999999996E-5
5.76E-5
5.765E-5
5.77E-5
5.7749999999999994E-5
5.7799999999999995E-5
5.785E-5
5.79E-5
5.795E-5
5.8E-5
5.8049999999999995E-5
5.8099999999999996E-5
5.815E-5
5.82E-5
5.825E-5
5.8299999999999994E-5
5.8349999999999995E-5
5.8399999999999997E-5
5.845E-5
5.85E-5
5.855E-5
5.8599999999999995E-5
5.8649999999999996E-5
5.87E-5
5.875E-5
5.88E-5
5.885E-5
5.8899999999999995E-5
5.8949999999999996E-5
5.9E-5
5.905E-5
5.91E-5
5.9149999999999994E-5
5.9199999999999996E-5
5.925E-5
5.93E-5
5.935E-5
5.94E-5
5.9449999999999995E-5
5.9499999999999996E-5
5.955E-5
5.96E-5
5.965E-5
5.9699999999999994E-5
5.9749999999999995E-5
5.98E-5
5.985E-5
5.99E-5
5.995E-5
5.9999999999999995E-5
6.0049999999999996E-5
6.01E-5
6.015E-5
6.02E-5
6.0249999999999994E-5
6.0299999999999995E-5
6.0349999999999996E-5
6.04E-5
6.045E-5
6.05E-5
6.0549999999999995E-5
6.0599999999999996E-5
6.065E-5
6.07E-5
6.075E-5
6.08E-5
6.0849999999999995E-5
6.0899999999999996E-5
6.095E-5
6.1E-5
6.104999999999999E-5
6.11E-5
6.115E-5
6.12E-5
6.125E-5
6.13E-5
6.135E-5
6.14E-5
6.145E-5
6.149999999999999E-5
6.154999999999999E-5
6.159999999999999E-5
6.165E-5
6.17E-5
6.175E-5
6.18E-5
6.185E-5
6.19E-5
6.195E-5
6.2E-5
6.205E-5
6.209999999999999E-5
6.214999999999999E-5
6.22E-5
6.225E-5
6.23E-5
6.235E-5
6.24E-5
6.245E-5
6.25E-5
6.255E-5
6.26E-5
6.264999999999999E-5
6.269999999999999E-5
6.275E-5
6.28E-5
6.285E-5
6.29E-5
6.295E-5
6.3E-5
6.305E-5
6.31E-5
6.315E-5
6.319999999999999E-5
6.324999999999999E-5
6.33E-5
6.335E-5
6.34E-5
6.345E-5
6.35E-5
6.355E-5
6.36E-5
6.365E-5
6.37E-5
6.374999999999999E-5
6.379999999999999E-5
6.385E-5
6.39E-5
6.395E-5
6.4E-5
6.405E-5
6.41E-5
6.415E-5
6.42E-5
6.425E-5
6.429999999999999E-5
6.434999999999999E-5
6.44E-5
6.445E-5
6.45E-5
6.455E-5
6.46E-5
6.465E-5
6.47E-5
6.475E-5
6.48E-5
6.484999999999999E-5
6.489999999999999E-5
6.494999999999999E-5
6.5E-5
6.505E-5
6.51E-5
6.515E-5
6.52E-5
6.525E-5
6.53E-5
6.535E-5
6.539999999999999E-5
6.544999999999999E-5
6.549999999999999E-5
6.555E-5
6.56E-5
6.565E-5
6.57E-5
6.575E-5
6.58E-5
6.585E-5
6.59E-5
6.594999999999999E-5
6.599999999999999E-5
6.604999999999999E-5
6.61E-5
6.615E-5
6.62E-5
6.625E-5
6.63E-5
6.635E-5
6.64E-5
6.645E-5
6.65E-5
6.654999999999999E-5
6.659999999999999E-5
6.665E-5
6.67E-5
6.675E-5
6.68E-5
6.685E-5
6.69E-5
6.695E-5
6.7E-5
6.705E-5
6.709999999999999E-5
6.714999999999999E-5
6.72E-5
6.725E-5
6.73E-5
6.735E-5
6.74E-5
6.745E-5
6.75E-5
6.755E-5
6.76E-5
6.764999999999999E-5
6.769999999999999E-5
6.775E-5
6.78E-5
6.785E-5
6.79E-5
6.795E-5
6.8E-5
6.805E-5
6.81E-5
6.815E-5
6.819999999999999E-5
6.824999999999999E-5
6.829999999999999E-5
6.835E-5
6.84E-5
6.845E-5
6.85E-5
6.855E-5
6.86E-5
6.865E-5
6.87E-5
6.874999999999999E-5
6.879999999999999E-5
6.884999999999999E-5
6.89E-5
6.895E-5
6.9E-5
6.905E-5
6.91E-5
6.915E-5
6.92E-5
6.925E-5
6.929999999999999E-5
6.934999999999999E-5
6.939999999999999E-5
6.945E-5
6.95E-5
6.955E-5
6.96E-5
6.965E-5
6.97E-5
6.975E-5
6.98E-5
6.984999999999999E-5
6.989999999999999E-5
6.994999999999999E-5
7.0E-5
7.005E-5
7.01E-5
7.015E-5
7.02E-5
7.025E-5
7.03E-5
7.035E-5
7.04E-5
7.044999999999999E-5
7.049999999999999E-5
7.055E-5
7.06E-5
7.065E-5
7.07E-5
7.075E-5
7.08E-5
7.085E-5
7.09E-5
7.095E-5
7.099999999999999E-5
7.104999999999999E-5
7.11E-5
7.115E-5
7.12E-5
7.125E-5
7.13E-5
7.135E-5
7.14E-5
7.145E-5
7.15E-5
7.154999999999999E-5
7.159999999999999E-5
7.165E-5
7.17E-5
7.175E-5
7.18E-5
7.185E-5
7.19E-5
7.195E-5
7.2E-5
7.205E-5
7.209999999999999E-5
7.214999999999999E-5
7.219999999999999E-5
7.225E-5
7.23E-5
7.235E-5
7.24E-5
7.245E-5
7.25E-5
7.255E-5
7.26E-5
7.264999999999999E-5
7.269999999999999E-5
7.274999999999999E-5
7.28E-5
7.285E-5
7.29E-5
7.295E-5
7.3E-5
7.305E-5
7.31E-5
7.315E-5
7.319999999999999E-5
7.324999999999999E-5
7.329999999999999E-5
7.335E-5
7.34E-5
7.345E-5
7.35E-5
7.355E-5
7.36E-5
7.365E-5
7.37E-5
7.374999999999999E-5
7.379999999999999E-5
7.384999999999999E-5
7.39E-5
7.395E-5
7.4E-5
7.405E-5
7.41E-5
7.415E-5
7.42E-5
7.425E-5
7.429999999999999E-5
7.434999999999999E-5
7.439999999999999E-5
7.445E-5
7.45E-5
7.455E-5
7.46E-5
7.465E-5
7.47E-5
7.475E-5
7.48E-5
7.485E-5
7.489999999999999E-5
7.494999999999999E-5
7.5E-5
7.505E-5
7.51E-5
7.515E-5
7.52E-5
7.525E-5
7.53E-5
7.535E-5
7.54E-5
7.544999999999999E-5
7.549999999999999E-5
7.555E-5
7.56E-5
7.565E-5
7.57E-5
7.575E-5
7.58E-5
7.585E-5
7.59E-5
7.595E-5
7.599999999999999E-5
7.604999999999999E-5
7.609999999999999E-5
7.615E-5
7.62E-5
7.625E-5
7.63E-5
7.635E-5
7.64E-5
7.645E-5
7.65E-5
7.654999999999999E-5
7.659999999999999E-5
7.664999999999999E-5
7.67E-5
7.675E-5
7.68E-5
7.685E-5
7.69E-5
7.695E-5
7.7E-5
7.705E-5
7.709999999999999E-5
7.714999999999999E-5
7.719999999999999E-5
7.725E-5
7.73E-5
7.735E-5
7.74E-5
7.745E-5
7.75E-5
7.755E-5
7.76E-5
7.764999999999999E-5
7.769999999999999E-5
7.774999999999999E-5
7.78E-5
7.785E-5
7.79E-5
7.795E-5
7.8E-5
7.805E-5
7.81E-5
7.815E-5
7.819999999999999E-5
7.824999999999999E-5
7.829999999999999E-5
7.835E-5
7.84E-5
7.845E-5
7.85E-5
7.855E-5
7.86E-5
7.865E-5
7.87E-5
7.874999999999999E-5
7.879999999999999E-5
7.884999999999999E-5
7.89E-5
7.895E-5
7.9E-5
7.905E-5
7.91E-5
7.915E-5
7.92E-5
7.925E-5
7.93E-5
7.934999999999999E-5
7.939999999999999E-5
7.944999999999999E-5
7.95E-5
7.955E-5
7.96E-5
7.965E-5
7.97E-5
7.975E-5
7.98E-5
7.985E-5
7.989999999999999E-5
7.994999999999999E-5
7.999999999999999E-5
% Elements (lines)
1          2
2          3
3          4
4          5
5          6
6          7
7          8
8          9
9          10
10         11
11         12
12         13
13         14
14         15
15         16
16         17
17         18
18         19
19         20
20         21
21         22
22         23
23         24
24         25
25         26
26         27
27         28
28         29
29         30
30         31
31         32
32         33
33         34
34         35
35         36
36         37
37         38
38         39
39         40
40         41
41         42
42         43
43         44
44         45
45         46
46         47
47         48
48         49
49         50
50         51
51         52
52         53
53         54
54         55
55         56
56         57
57         58
58         59
59         60
60         61
61         62
62         63
63         64
64         65
65         66
66         67
67         68
68         69
69         70
70         71
71         72
72         73
73         74
74         75
75         76
76         77
77         78
78         79
79         80
80         81
81         82
82         83
83         84
84         85
85         86
86         87
87         88
88         89
89         90
90         91
91         92
92         93
93         94
94         95
95         96
96         97
97         98
98         99
99         100
100        101
101        102
102        103
103        104
104        105
105        106
106        107
107        108
108        109
109        110
110        111
111        112
112        113
113        114
114        115
115        116
116        117
117        118
118        119
119        120
120        121
121        122
122        123
123        124
124        125
125        126
126        127
127        128
128        129
129        130
130        131
131        132
132        133
133        134
134        135
135        136
136        137
137        138
138        139
139        140
140        141
141        142
142        143
143        144
144        145
145        146
146        147
147        148
148        149
149        150
150        151
151        152
152        153
153        154
154        155
155        156
156        157
157        158
158        159
159        160
160        161
161        162
162        163
163        164
164        165
165        166
166        167
167        168
168        169
169        170
170        171
171        172
172        173
173        174
174        175
175        176
176        177
177        178
178        179
179        180
180        181
181        182
182        183
183        184
184        185
185        186
186        187
187        188
188        189
189        190
190        191
191        192
192        193
193        194
194        195
195        196
196        197
197        198
198        199
199        200
200        201
201        202
202        203
203        204
204        205
205        206
206        207
207        208
208        209
209        210
210        211
211        212
212        213
213        214
214        215
215        216
216        217
217        218
218        219
219        220
220        221
221        222
222        223
223        224
224        225
225        226
226        227
227        228
228        229
229        230
230        231
231        232
232        233
233        234
234        235
235        236
236        237
237        238
238        239
239        240
240        241
241        242
242        243
243        244
244        245
245        246
246        247
247        248
248        249
249        250
250        251
251        252
252        253
253        254
254        255
255        256
256        257
257        258
258        259
259        260
260        261
261        262
262        263
263        264
264        265
265        266
266        267
267        268
268        269
269        270
270        271
271        272
272        273
273        274
274        275
275        276
276        277
277        278
278        279
279        280
280        281
281        282
282        283
283        284
284        285
285        286
286        287
287        288
288        289
289        290
290        291
291        292
292        293
293        294
294        295
295        296
296        297
297        298
298        299
299        300
300        301
301        302
302        303
303        304
304        305
305        306
306        307
307        308
308        309
309        310
310        311
311        312
312        313
313        314
314        315
315        316
316        317
317        318
318        319
319        320
320        321
321        322
322        323
323        324
324        325
325        326
326        327
327        328
328        329
329        330
330        331
331        332
332        333
333        334
334        335
335        336
336        337
337        338
338        339
339        340
340        341
341        342
342        343
343        344
344        345
345        346
346        347
347        348
348        349
349        350
350        351
351        352
352        353
353        354
354        355
355        356
356        357
357        358
358        359
359        360
360        361
361        362
362        363
363        364
364        365
365        366
366        367
367        368
368        369
369        370
370        371
371        372
372        373
373        374
374        375
375        376
376        377
377        378
378        379
379        380
380        381
381        382
382        383
383        384
384        385
385        386
386        387
387        388
388        389
389        390
390        391
391        392
392        393
393        394
394        395
395        396
396        397
397        398
398        399
399        400
400        401
401        402
402        403
403        404
404        405
405        406
406        407
407        408
408        409
409        410
410        411
411        412
412        413
413        414
414        415
415        416
416        417
417        418
418        419
419        420
420        421
421        422
422        423
423        424
424        425
425        426
426        427
427        428
428        429
429        430
430        431
431        432
432        433
433        434
434        435
435        436
436        437
437        438
438        439
439        440
440        441
441        442
442        443
443        444
444        445
445        446
446        447
447        448
448        449
449        450
450        451
451        452
452        453
453        454
454        455
455        456
456        457
457        458
458        459
459        460
460        461
461        462
462        463
463        464
464        465
465        466
466        467
467        468
468        469
469        470
470        471
471        472
472        473
473        474
474        475
475        476
476        477
477        478
478        479
479        480
480        481
481        482
482        483
483        484
484        485
485        486
486        487
487        488
488        489
489        490
490        491
491        492
492        493
493        494
494        495
495        496
496        497
497        498
498        499
499        500
500        501
501        502
502        503
503        504
504        505
505        506
506        507
507        508
508        509
509        510
510        511
511        512
512        513
513        514
514        515
515        516
516        517
517        518
518        519
519        520
520        521
521        522
522        523
523        524
524        525
525        526
526        527
527        528
528        529
529        530
530        531
531        532
532        533
533        534
534        535
535        536
536        537
537        538
538        539
539        540
540        541
541        542
542        543
543        544
544        545
545        546
546        547
547        548